ITEM: TIMESTEP
262
ITEM: NUMBER OF ATOMS
36600
ITEM: BOX BOUNDS pp ff pp
0 88.7773
0 160.296
0 49.6022
ITEM: ATOMS id type xs ys zs c_csym c_peratom 
25813 2 0.0322063 0.0782186 0.0667257 24.4214 -3.00386 
25814 2 0.016103 0.078222 0.0167263 24.4218 -3.00387 
25816 2 1.17939e-16 0.0782232 0.0667264 24.4219 -3.00388 
25815 2 0.0483101 0.078213 0.0167248 24.4207 -3.00385 
25820 2 0.0805203 0.0781952 0.016722 24.4181 -3.0038 
25822 2 0.0644147 0.0782051 0.0667236 24.4196 -3.00383 
25819 2 0.0966272 0.0781833 0.0667201 24.4165 -3.00377 
25821 2 0.112736 0.0781695 0.0167178 24.4151 -3.00373 
25836 2 0.128846 0.0781541 0.0667153 24.4138 -3.00369 
25833 2 0.161072 0.0781189 0.0667092 24.4117 -3.00359 
25834 2 0.144958 0.0781372 0.0167124 24.4127 -3.00364 
25835 2 0.177188 0.0780995 0.0167058 24.4103 -3.00353 
25855 2 0.225552 0.0780368 0.0666939 24.4073 -3.00335 
25856 2 0.209428 0.0780583 0.0166981 24.4082 -3.00341 
25858 2 0.193307 0.0780792 0.066702 24.4092 -3.00347 
25857 2 0.241679 0.0780151 0.0166896 24.4067 -3.00329 
25888 2 0.257808 0.0779934 0.0666852 24.4063 -3.00323 
25885 2 0.290074 0.0779509 0.0666763 24.406 -3.0031 
25886 2 0.273939 0.0779719 0.0166808 24.4061 -3.00316 
25887 2 0.306211 0.0779305 0.0166718 24.4062 -3.00304 
25923 2 0.354636 0.077875 0.0666591 24.4078 -3.00287 
25924 2 0.338492 0.0778923 0.0166632 24.4071 -3.00293 
25926 2 0.32235 0.0779109 0.0666674 24.4065 -3.00298 
25925 2 0.370782 0.077859 0.0166553 24.4087 -3.00282 
25970 2 0.403079 0.0778318 0.0166487 24.4108 -3.00274 
25972 2 0.386929 0.0778445 0.0666518 24.4097 -3.00278 
25969 2 0.41923 0.0778207 0.0666459 24.4113 -3.00271 
25971 2 0.435383 0.0778116 0.0166436 24.4121 -3.00268 
26026 2 0.451536 0.0778044 0.0666418 24.4122 -3.00265 
26023 2 0.483845 0.077796 0.0666396 24.4128 -3.00263 
26024 2 0.46769 0.0777992 0.0166404 24.4124 -3.00264 
26025 2 0.5 0.077795 0.0166394 24.4134 -3.00263 
26086 2 0.53231 0.0777992 0.0166404 24.4124 -3.00264 
26088 2 0.516155 0.077796 0.0666396 24.4128 -3.00263 
26085 2 0.548464 0.0778044 0.0666418 24.4122 -3.00265 
26087 2 0.564617 0.0778116 0.0166436 24.4121 -3.00268 
26158 2 0.58077 0.0778207 0.0666459 24.4113 -3.00271 
26155 2 0.613071 0.0778445 0.0666518 24.4097 -3.00278 
26156 2 0.596921 0.0778318 0.0166487 24.4108 -3.00274 
26157 2 0.629218 0.077859 0.0166553 24.4087 -3.00282 
26233 2 0.67765 0.0779109 0.0666674 24.4065 -3.00298 
26234 2 0.661508 0.0778923 0.0166632 24.4071 -3.00293 
26236 2 0.645364 0.077875 0.0666591 24.4078 -3.00287 
26235 2 0.693789 0.0779305 0.0166718 24.4062 -3.00304 
26320 2 0.726061 0.0779719 0.0166808 24.4061 -3.00316 
26322 2 0.709926 0.0779509 0.0666763 24.406 -3.0031 
26319 2 0.742192 0.0779934 0.0666852 24.4063 -3.00323 
26321 2 0.758321 0.0780151 0.0166896 24.4067 -3.00329 
26413 2 0.806693 0.0780792 0.066702 24.4092 -3.00347 
26414 2 0.790572 0.0780583 0.0166981 24.4082 -3.00341 
26416 2 0.774448 0.0780368 0.0666939 24.4073 -3.00335 
26415 2 0.822812 0.0780995 0.0167058 24.4103 -3.00353 
26516 2 0.855042 0.0781372 0.0167124 24.4127 -3.00364 
26518 2 0.838928 0.0781189 0.0667092 24.4117 -3.00359 
26515 2 0.871154 0.0781541 0.0667153 24.4138 -3.00369 
26517 2 0.887264 0.0781695 0.0167178 24.4151 -3.00373 
26628 2 0.903373 0.0781833 0.0667201 24.4165 -3.00377 
26625 2 0.935585 0.0782051 0.0667236 24.4196 -3.00383 
26626 2 0.91948 0.0781952 0.016722 24.4181 -3.0038 
26627 2 0.95169 0.078213 0.0167248 24.4207 -3.00385 
26740 2 0.983897 0.078222 0.0167263 24.4218 -3.00387 
26741 2 0.967794 0.0782186 0.0667257 24.4214 -3.00386 
25818 2 0.0161067 0.0927418 0.0500483 0.000489357 -3.31176 
25828 2 0.0161094 0.107184 0.0833768 6.09407e-05 -3.35834 
27611 2 0.0322137 0.0927382 1.00005 0.000488613 -3.31175 
27612 2 1 0.092743 1.00005 0.000489576 -3.31176 
27613 2 1 0.107185 0.0333769 6.08966e-05 -3.35834 
27617 2 0.0322191 0.10718 0.0333765 6.10334e-05 -3.35833 
25824 2 0.0483211 0.0927322 0.0500474 0.000487403 -3.31174 
25825 2 0.0805382 0.0927135 0.0500454 0.000483608 -3.3117 
25829 2 0.0483291 0.107174 0.0833761 6.12078e-05 -3.35833 
25842 2 0.080551 0.107154 0.0833745 6.1767e-05 -3.35833 
27615 2 0.0644292 0.0927239 1.00005 0.000485706 -3.31173 
27616 2 0.0644397 0.107165 0.0333754 6.14575e-05 -3.35833 
25838 2 0.11276 0.0926865 0.0500426 0.000478264 -3.31165 
25843 2 0.112777 0.107126 0.0833723 6.26259e-05 -3.35833 
27614 2 0.0966482 0.092701 1.00004 0.000481159 -3.31168 
27625 2 0.128872 0.0926702 1.00004 0.000475123 -3.31162 
27626 2 0.128891 0.107109 0.0333709 6.31607e-05 -3.35833 
27627 2 0.0966633 0.107141 0.0333735 6.21698e-05 -3.35833 
25839 2 0.144987 0.0926524 0.0500388 0.00047172 -3.31158 
25860 2 0.177221 0.0926127 0.0500341 0.000464335 -3.3115 
25864 2 0.145007 0.107091 0.0833692 6.37541e-05 -3.35832 
25865 2 0.177244 0.107049 0.0833654 6.509e-05 -3.35832 
27624 2 0.161103 0.0926332 1.00004 0.000468128 -3.31154 
27645 2 0.161125 0.107071 0.0333674 6.44091e-05 -3.35832 
25861 2 0.209463 0.0925692 0.0500287 0.000456496 -3.31141 
25894 2 0.209488 0.107004 0.0833609 6.65688e-05 -3.35831 
27642 2 0.225587 0.0925466 2.56509e-05 0.00045252 -3.31136 
27643 2 0.193341 0.0925914 1.00003 0.000460432 -3.31146 
27644 2 0.193365 0.107027 0.0333632 6.58258e-05 -3.35831 
27671 2 0.225613 0.10698 0.0333583 6.73386e-05 -3.35831 
25890 2 0.241714 0.0925237 0.0500225 0.000448625 -3.31132 
25895 2 0.241739 0.106956 0.0833556 6.80993e-05 -3.3583 
27669 2 0.257843 0.0925008 1.92598e-05 0.000444743 -3.31127 
27670 2 0.257868 0.106932 0.0333529 6.88524e-05 -3.3583 
25891 2 0.273974 0.0924782 0.0500159 0.000440979 -3.31122 
25928 2 0.306243 0.0924344 0.0500092 0.000433897 -3.31113 
25932 2 0.273999 0.106909 0.08335 6.95942e-05 -3.3583 
25933 2 0.306266 0.106863 0.0833441 7.09819e-05 -3.35829 
27668 2 0.290108 0.0924559 1.25499e-05 0.000437381 -3.31117 
27705 2 0.290132 0.106885 0.033347 7.03088e-05 -3.3583 
25929 2 0.338521 0.0923941 0.0500026 0.000427518 -3.31104 
25978 2 0.338542 0.106821 0.0833382 7.21716e-05 -3.35829 
27702 2 0.354663 0.0923757 -5.16801e-07 0.000424724 -3.311 
27703 2 0.322381 0.0924137 5.85688e-06 0.00043059 -3.31108 
27704 2 0.322403 0.106841 0.0333411 7.15888e-05 -3.35829 
27747 2 0.354682 0.106802 0.0333354 7.26751e-05 -3.35828 
25974 2 0.370806 0.0923589 0.0499965 0.000422134 -3.31096 
25975 2 0.403099 0.0923301 0.0499913 0.000417786 -3.3109 
25979 2 0.370824 0.106784 0.0833327 7.31241e-05 -3.35828 
26032 2 0.403112 0.106754 0.083328 7.38123e-05 -3.35828 
27745 2 0.386952 0.0923436 -6.18943e-06 0.000419829 -3.31093 
27746 2 0.386967 0.106768 0.0333303 7.34957e-05 -3.35828 
26028 2 0.435396 0.0923088 0.0499874 0.000414561 -3.31085 
26033 2 0.435405 0.106732 0.0833244 7.42769e-05 -3.35827 
27744 2 0.419247 0.0923184 -1.08121e-05 0.000416026 -3.31087 
27795 2 0.451546 0.0923011 0.999986 0.000413429 -3.31083 
27796 2 0.451553 0.106724 0.0333231 7.44518e-05 -3.35827 
27797 2 0.419258 0.106742 0.0333261 7.40805e-05 -3.35828 
26029 2 0.467697 0.0922956 0.0499849 0.000412649 -3.31082 
26094 2 0.467702 0.106718 0.0833221 7.46087e-05 -3.35827 
27794 2 0.483848 0.0922923 0.999984 0.000412146 -3.31081 
27855 2 0.483851 0.106714 0.0333215 7.46604e-05 -3.35827 
26090 2 0.5 0.0922912 0.049984 0.000411989 -3.31081 
26091 2 0.532303 0.0922956 0.0499849 0.000412649 -3.31082 
26095 2 0.5 0.106713 0.0833213 7.46789e-05 -3.35827 
26164 2 0.532298 0.106718 0.0833221 7.46087e-05 -3.35827 
27853 2 0.516152 0.0922923 0.999984 0.000412146 -3.31081 
27854 2 0.516149 0.106714 0.0333215 7.46604e-05 -3.35827 
26160 2 0.564604 0.0923088 0.0499874 0.000414561 -3.31085 
26165 2 0.564595 0.106732 0.0833244 7.42769e-05 -3.35827 
27852 2 0.548454 0.0923011 0.999986 0.000413429 -3.31083 
27919 2 0.580753 0.0923184 -1.08121e-05 0.000416026 -3.31087 
27920 2 0.580742 0.106742 0.0333261 7.40805e-05 -3.35828 
27921 2 0.548447 0.106724 0.0333231 7.44518e-05 -3.35827 
26161 2 0.596901 0.0923301 0.0499913 0.000417786 -3.3109 
26238 2 0.629194 0.0923589 0.0499965 0.000422134 -3.31096 
26242 2 0.596888 0.106754 0.083328 7.38123e-05 -3.35828 
26243 2 0.629176 0.106784 0.0833327 7.31241e-05 -3.35828 
27918 2 0.613048 0.0923436 -6.18943e-06 0.000419829 -3.31093 
27995 2 0.613033 0.106768 0.0333303 7.34957e-05 -3.35828 
26239 2 0.661479 0.0923941 0.0500026 0.000427518 -3.31104 
26328 2 0.661458 0.106821 0.0833382 7.21716e-05 -3.35829 
27992 2 0.677619 0.0924137 5.85688e-06 0.00043059 -3.31108 
27993 2 0.645337 0.0923757 -5.16801e-07 0.000424724 -3.311 
27994 2 0.645318 0.106802 0.0333354 7.26751e-05 -3.35828 
28077 2 0.677597 0.106841 0.0333411 7.15888e-05 -3.35829 
26324 2 0.693757 0.0924344 0.0500092 0.000433897 -3.31113 
26325 2 0.726026 0.0924782 0.0500159 0.000440979 -3.31122 
26329 2 0.693734 0.106863 0.0833441 7.09819e-05 -3.35829 
26422 2 0.726001 0.106909 0.08335 6.95942e-05 -3.3583 
28075 2 0.709892 0.0924559 1.25499e-05 0.000437381 -3.31117 
28076 2 0.709868 0.106885 0.033347 7.03088e-05 -3.3583 
26418 2 0.758286 0.0925237 0.0500225 0.000448625 -3.31132 
26423 2 0.758261 0.106956 0.0833556 6.80993e-05 -3.3583 
28074 2 0.742157 0.0925008 1.92598e-05 0.000444743 -3.31127 
28167 2 0.742132 0.106932 0.0333529 6.88524e-05 -3.3583 
26419 2 0.790537 0.0925692 0.0500287 0.000456496 -3.31141 
26524 2 0.790512 0.107004 0.0833609 6.65688e-05 -3.35831 
28164 2 0.806659 0.0925914 1.00003 0.000460432 -3.31146 
28165 2 0.774413 0.0925466 2.56509e-05 0.00045252 -3.31136 
28166 2 0.774387 0.10698 0.0333583 6.73386e-05 -3.35831 
28265 2 0.806635 0.107027 0.0333632 6.58258e-05 -3.35831 
26520 2 0.822779 0.0926127 0.0500341 0.000464335 -3.3115 
26521 2 0.855013 0.0926524 0.0500388 0.00047172 -3.31158 
26525 2 0.822756 0.107049 0.0833654 6.509e-05 -3.35832 
26634 2 0.854993 0.107091 0.0833692 6.37541e-05 -3.35832 
28263 2 0.838897 0.0926332 1.00004 0.000468128 -3.31154 
28264 2 0.838875 0.107071 0.0333674 6.44091e-05 -3.35832 
26630 2 0.88724 0.0926865 0.0500426 0.000478264 -3.31165 
26635 2 0.887223 0.107126 0.0833723 6.26259e-05 -3.35833 
28262 2 0.871128 0.0926702 1.00004 0.000475123 -3.31162 
28369 2 0.903352 0.092701 1.00004 0.000481159 -3.31168 
28370 2 0.903337 0.107141 0.0333735 6.21698e-05 -3.35833 
28371 2 0.871109 0.107109 0.0333709 6.31607e-05 -3.35833 
26631 2 0.919462 0.0927135 0.0500454 0.000483608 -3.3117 
26743 2 0.951679 0.0927322 0.0500474 0.000487403 -3.31174 
26747 2 0.919449 0.107154 0.0833745 6.1767e-05 -3.35833 
28368 2 0.935571 0.0927239 1.00005 0.000485706 -3.31173 
28482 2 0.93556 0.107165 0.0333754 6.14575e-05 -3.35833 
26744 2 0.983893 0.0927418 0.0500483 0.000489357 -3.31176 
26854 2 0.983891 0.107184 0.0833768 6.09407e-05 -3.35834 
28480 2 0.967786 0.0927382 1.00005 0.000488613 -3.31175 
28481 2 0.967781 0.10718 0.0333765 6.10334e-05 -3.35833 
27618 2 0.0322223 0.121651 0.0667057 3.32467e-06 -3.36032 
27619 2 0.0161111 0.121655 0.0167059 3.37254e-06 -3.36032 
27621 2 1 0.121656 0.066706 3.38888e-06 -3.36032 
27620 2 0.0483339 0.121644 0.0167053 3.24882e-06 -3.36031 
27629 2 0.0805587 0.121624 0.0167042 3.04106e-06 -3.36031 
27631 2 0.064446 0.121635 0.0667049 3.15386e-06 -3.36031 
27628 2 0.0966723 0.12161 0.0667034 2.91497e-06 -3.36031 
27630 2 0.112787 0.121595 0.0167025 2.78299e-06 -3.3603 
27649 2 0.128903 0.121577 0.0667013 2.66357e-06 -3.3603 
27646 2 0.161138 0.121537 0.0666986 2.47016e-06 -3.36029 
27647 2 0.14502 0.121558 0.0167 2.55826e-06 -3.3603 
27648 2 0.177258 0.121515 0.016697 2.40396e-06 -3.36029 
27672 2 0.225627 0.121443 0.066691 2.36641e-06 -3.36028 
27673 2 0.209502 0.121468 0.0166932 2.35282e-06 -3.36028 
27675 2 0.193379 0.121492 0.0666951 2.36449e-06 -3.36029 
27674 2 0.241754 0.121418 0.0166887 2.40115e-06 -3.36027 
27709 2 0.257883 0.121393 0.0666863 2.45622e-06 -3.36027 
27706 2 0.290146 0.121344 0.0666811 2.60974e-06 -3.36026 
27707 2 0.274013 0.121368 0.0166838 2.52727e-06 -3.36026 
27708 2 0.30628 0.121321 0.0166785 2.70026e-06 -3.36026 
27748 2 0.354693 0.121257 0.0666706 2.94171e-06 -3.36025 
27749 2 0.338554 0.121277 0.0166732 2.87072e-06 -3.36025 
27751 2 0.322416 0.121298 0.0666758 2.78878e-06 -3.36025 
27750 2 0.370834 0.121238 0.0166682 3.00423e-06 -3.36024 
27799 2 0.40312 0.121207 0.0166638 3.09585e-06 -3.36024 
27801 2 0.386976 0.121221 0.0666659 3.05551e-06 -3.36024 
27798 2 0.419265 0.121194 0.066662 3.12766e-06 -3.36024 
27800 2 0.435411 0.121183 0.0166604 3.15279e-06 -3.36024 
27859 2 0.451557 0.121175 0.0666592 3.16612e-06 -3.36023 
27856 2 0.483852 0.121165 0.0666577 3.17567e-06 -3.36023 
27857 2 0.467705 0.121169 0.0166583 3.17032e-06 -3.36023 
27858 2 0.5 0.121164 0.0166575 3.17709e-06 -3.36023 
27923 2 0.532295 0.121169 0.0166583 3.17032e-06 -3.36023 
27925 2 0.516148 0.121165 0.0666577 3.17567e-06 -3.36023 
27922 2 0.548443 0.121175 0.0666592 3.16612e-06 -3.36023 
27924 2 0.564589 0.121183 0.0166604 3.15279e-06 -3.36024 
27999 2 0.580735 0.121194 0.066662 3.12766e-06 -3.36024 
27996 2 0.613024 0.121221 0.0666659 3.05551e-06 -3.36024 
27997 2 0.59688 0.121207 0.0166638 3.09585e-06 -3.36024 
27998 2 0.629166 0.121238 0.0166682 3.00423e-06 -3.36024 
28078 2 0.677584 0.121298 0.0666758 2.78878e-06 -3.36025 
28079 2 0.661446 0.121277 0.0166732 2.87072e-06 -3.36025 
28081 2 0.645307 0.121257 0.0666706 2.94171e-06 -3.36025 
28080 2 0.69372 0.121321 0.0166785 2.70026e-06 -3.36026 
28169 2 0.725987 0.121368 0.0166838 2.52727e-06 -3.36026 
28171 2 0.709854 0.121344 0.0666811 2.60974e-06 -3.36026 
28168 2 0.742117 0.121393 0.0666863 2.45622e-06 -3.36027 
28170 2 0.758246 0.121418 0.0166887 2.40115e-06 -3.36027 
28266 2 0.806621 0.121492 0.0666951 2.36449e-06 -3.36029 
28267 2 0.790498 0.121468 0.0166932 2.35282e-06 -3.36028 
28269 2 0.774373 0.121443 0.066691 2.36641e-06 -3.36028 
28268 2 0.822742 0.121515 0.016697 2.40396e-06 -3.36029 
28373 2 0.85498 0.121558 0.0167 2.55826e-06 -3.3603 
28375 2 0.838862 0.121537 0.0666986 2.47016e-06 -3.36029 
28372 2 0.871097 0.121577 0.0667013 2.66357e-06 -3.3603 
28374 2 0.887213 0.121595 0.0167025 2.78299e-06 -3.3603 
28486 2 0.903328 0.12161 0.0667034 2.91497e-06 -3.36031 
28483 2 0.935554 0.121635 0.0667049 3.15386e-06 -3.36031 
28484 2 0.919441 0.121624 0.0167042 3.04106e-06 -3.36031 
28485 2 0.951666 0.121644 0.0167053 3.24882e-06 -3.36031 
28591 2 0.983889 0.121655 0.0167059 3.37254e-06 -3.36032 
28592 2 0.967778 0.121651 0.0667057 3.32467e-06 -3.36032 
27623 2 0.0161118 0.136128 0.0500344 3.53407e-06 -3.35982 
27637 2 0.0161118 0.150603 0.0833618 3.82138e-06 -3.35979 
29347 2 0.0322238 0.136124 3.42468e-05 3.4527e-06 -3.35982 
29348 2 1.82109e-16 0.136129 3.44292e-05 3.56002e-06 -3.35982 
29349 2 1.91464e-16 0.150604 0.0333618 3.85258e-06 -3.35979 
29353 2 0.0322238 0.150599 0.0333618 3.72879e-06 -3.35979 
27633 2 0.048336 0.136117 0.050034 3.33459e-06 -3.35981 
27634 2 0.0805621 0.136096 0.0500333 2.99508e-06 -3.35981 
27638 2 0.0483361 0.150592 0.0833617 3.58342e-06 -3.35978 
27655 2 0.0805622 0.15057 0.0833615 3.16992e-06 -3.35978 
29351 2 0.0644488 0.136108 3.37293e-05 3.18132e-06 -3.35981 
29352 2 0.0644488 0.150582 0.0333616 3.39503e-06 -3.35978 
27651 2 0.112791 0.136066 0.0500322 2.56675e-06 -3.3598 
27656 2 0.112791 0.150538 0.0833611 2.63932e-06 -3.35977 
29350 2 0.0966763 0.136082 3.28046e-05 2.78555e-06 -3.35981 
29361 2 0.128907 0.136047 3.13942e-05 2.35561e-06 -3.3598 
29362 2 0.128907 0.150519 0.0333607 2.37491e-06 -3.35977 
29363 2 0.0966763 0.150555 0.0333613 2.9108e-06 -3.35978 
27652 2 0.145025 0.136027 0.0500305 2.15847e-06 -3.35979 
27677 2 0.177263 0.135982 0.0500282 1.83687e-06 -3.35978 
27681 2 0.145024 0.150498 0.0833602 2.12486e-06 -3.35976 
27682 2 0.177263 0.150451 0.0833589 1.70197e-06 -3.35975 
29360 2 0.161143 0.136006 2.94141e-05 1.98501e-06 -3.35979 
29381 2 0.161143 0.150475 0.0333596 1.89727e-06 -3.35976 
27678 2 0.209508 0.135933 0.0500252 1.64889e-06 -3.35977 
27715 2 0.209507 0.150399 0.083357 1.44336e-06 -3.35974 
29378 2 0.225633 0.135907 2.35059e-05 1.61479e-06 -3.35977 
29379 2 0.193385 0.135958 2.67916e-05 1.72295e-06 -3.35978 
29380 2 0.193384 0.150425 0.033358 1.5487e-06 -3.35975 
29407 2 0.225632 0.150372 0.0333558 1.3887e-06 -3.35974 
27711 2 0.24176 0.135881 0.0500216 1.62061e-06 -3.35976 
27716 2 0.241758 0.150345 0.0833544 1.38568e-06 -3.35973 
29405 2 0.257888 0.135855 1.96151e-05 1.66405e-06 -3.35976 
29406 2 0.257887 0.150318 0.0333529 1.43102e-06 -3.35973 
27712 2 0.274018 0.135829 0.0500175 1.74062e-06 -3.35975 
27753 2 0.306285 0.135779 0.050013 1.97204e-06 -3.35974 
27757 2 0.274017 0.15029 0.0833512 1.5225e-06 -3.35972 
27758 2 0.306282 0.150238 0.0833476 1.81865e-06 -3.35971 
29404 2 0.290151 0.135804 1.52515e-05 1.84598e-06 -3.35975 
29441 2 0.290149 0.150264 0.0333494 1.65376e-06 -3.35972 
27754 2 0.338558 0.135733 0.0500083 2.25371e-06 -3.35974 
27807 2 0.338555 0.150189 0.0833436 2.20542e-06 -3.3597 
29438 2 0.354697 0.135712 1.00001 2.39915e-06 -3.35973 
29439 2 0.32242 0.135756 1.06116e-05 2.11039e-06 -3.35974 
29440 2 0.322418 0.150213 0.0333456 2.00583e-06 -3.35971 
29483 2 0.354694 0.150167 0.0333417 2.40843e-06 -3.3597 
27803 2 0.370837 0.135693 0.0500038 2.53852e-06 -3.35973 
27804 2 0.403123 0.13566 0.0499997 2.78162e-06 -3.35973 
27808 2 0.370835 0.150147 0.0833397 2.60898e-06 -3.3597 
27865 2 0.403121 0.150112 0.0833361 2.97308e-06 -3.35969 
29481 2 0.386979 0.135676 1 2.6655e-06 -3.35973 
29482 2 0.386977 0.150128 0.0333379 2.79885e-06 -3.3597 
27861 2 0.435412 0.135636 0.0499966 2.95478e-06 -3.35972 
27866 2 0.435411 0.150086 0.0833333 3.25401e-06 -3.35969 
29480 2 0.419267 0.135647 0.999998 2.87937e-06 -3.35972 
29531 2 0.451559 0.135627 0.999995 3.01744e-06 -3.35972 
29532 2 0.451558 0.150077 0.0333322 3.35148e-06 -3.35969 
29533 2 0.419265 0.150098 0.0333346 3.12825e-06 -3.35969 
27862 2 0.467705 0.135621 0.0499946 3.06543e-06 -3.35972 
27931 2 0.467705 0.15007 0.0833315 3.42343e-06 -3.35969 
29530 2 0.483853 0.135617 0.999994 3.09281e-06 -3.35972 
29591 2 0.483852 0.150066 0.033331 3.46893e-06 -3.35969 
27927 2 0.5 0.135615 0.0499939 3.10129e-06 -3.35972 
27928 2 0.532295 0.135621 0.0499946 3.06543e-06 -3.35972 
27932 2 0.5 0.150065 0.0833308 3.48498e-06 -3.35969 
28005 2 0.532295 0.15007 0.0833315 3.42343e-06 -3.35969 
29589 2 0.516147 0.135617 0.999994 3.09281e-06 -3.35972 
29590 2 0.516148 0.150066 0.033331 3.46893e-06 -3.35969 
28001 2 0.564588 0.135636 0.0499966 2.95478e-06 -3.35972 
28006 2 0.564589 0.150086 0.0833333 3.25401e-06 -3.35969 
29588 2 0.548441 0.135627 0.999995 3.01744e-06 -3.35972 
29655 2 0.580733 0.135647 0.999998 2.87937e-06 -3.35972 
29656 2 0.580735 0.150098 0.0333346 3.12825e-06 -3.35969 
29657 2 0.548442 0.150077 0.0333322 3.35148e-06 -3.35969 
28002 2 0.596877 0.13566 0.0499997 2.78162e-06 -3.35973 
28083 2 0.629163 0.135693 0.0500038 2.53852e-06 -3.35973 
28087 2 0.596879 0.150112 0.0833361 2.97308e-06 -3.35969 
28088 2 0.629165 0.150147 0.0833397 2.60898e-06 -3.3597 
29654 2 0.613021 0.135676 1 2.6655e-06 -3.35973 
29731 2 0.613023 0.150128 0.0333379 2.79885e-06 -3.3597 
28084 2 0.661442 0.135733 0.0500083 2.25371e-06 -3.35974 
28177 2 0.661445 0.150189 0.0833436 2.20542e-06 -3.3597 
29728 2 0.67758 0.135756 1.06116e-05 2.11039e-06 -3.35974 
29729 2 0.645303 0.135712 1.00001 2.39915e-06 -3.35973 
29730 2 0.645306 0.150167 0.0333417 2.40843e-06 -3.3597 
29813 2 0.677582 0.150213 0.0333456 2.00583e-06 -3.35971 
28173 2 0.693715 0.135779 0.050013 1.97204e-06 -3.35974 
28174 2 0.725982 0.135829 0.0500175 1.74062e-06 -3.35975 
28178 2 0.693718 0.150238 0.0833476 1.81865e-06 -3.35971 
28275 2 0.725983 0.15029 0.0833512 1.5225e-06 -3.35972 
29811 2 0.709849 0.135804 1.52515e-05 1.84598e-06 -3.35975 
29812 2 0.709851 0.150264 0.0333494 1.65376e-06 -3.35972 
28271 2 0.75824 0.135881 0.0500216 1.62061e-06 -3.35976 
28276 2 0.758242 0.150345 0.0833544 1.38568e-06 -3.35973 
29810 2 0.742112 0.135855 1.96151e-05 1.66405e-06 -3.35976 
29903 2 0.742113 0.150318 0.0333529 1.43102e-06 -3.35973 
28272 2 0.790492 0.135933 0.0500252 1.64889e-06 -3.35977 
28381 2 0.790493 0.150399 0.083357 1.44336e-06 -3.35974 
29900 2 0.806615 0.135958 2.67916e-05 1.72295e-06 -3.35978 
29901 2 0.774367 0.135907 2.35059e-05 1.61479e-06 -3.35977 
29902 2 0.774368 0.150372 0.0333558 1.3887e-06 -3.35974 
30001 2 0.806616 0.150425 0.033358 1.5487e-06 -3.35975 
28377 2 0.822737 0.135982 0.0500282 1.83687e-06 -3.35978 
28378 2 0.854975 0.136027 0.0500305 2.15847e-06 -3.35979 
28382 2 0.822737 0.150451 0.0833589 1.70197e-06 -3.35975 
28492 2 0.854976 0.150498 0.0833602 2.12486e-06 -3.35976 
29999 2 0.838857 0.136006 2.94141e-05 1.98501e-06 -3.35979 
30000 2 0.838857 0.150475 0.0333596 1.89727e-06 -3.35976 
28488 2 0.887209 0.136066 0.0500322 2.56675e-06 -3.3598 
28493 2 0.887209 0.150538 0.0833611 2.63932e-06 -3.35977 
29998 2 0.871093 0.136047 3.13942e-05 2.35561e-06 -3.3598 
30099 2 0.903324 0.136082 3.28046e-05 2.78555e-06 -3.35981 
30100 2 0.903324 0.150555 0.0333613 2.9108e-06 -3.35978 
30101 2 0.871093 0.150519 0.0333607 2.37491e-06 -3.35977 
28489 2 0.919438 0.136096 0.0500333 2.99508e-06 -3.35981 
28594 2 0.951664 0.136117 0.050034 3.33459e-06 -3.35981 
28598 2 0.919438 0.15057 0.0833615 3.16992e-06 -3.35978 
28599 2 0.951664 0.150592 0.0833617 3.58342e-06 -3.35978 
30098 2 0.935551 0.136108 3.37293e-05 3.18132e-06 -3.35981 
30200 2 0.935551 0.150582 0.0333616 3.39503e-06 -3.35978 
28595 2 0.983888 0.136128 0.0500344 3.53407e-06 -3.35982 
30198 2 0.967776 0.136124 3.42468e-05 3.4527e-06 -3.35982 
30199 2 0.967776 0.150599 0.0333618 3.72879e-06 -3.35979 
29354 2 0.0322228 0.165075 0.0666878 4.11929e-06 -3.35979 
29355 2 0.0161113 0.16508 0.0166877 4.22291e-06 -3.35979 
29357 2 2.31873e-16 0.165081 0.0666877 4.26139e-06 -3.35979 
29359 2 0.0161104 0.179558 0.0500117 4.71362e-06 -3.35979 
30897 2 0.0322209 0.179554 1.19138e-05 4.60245e-06 -3.35979 
30898 2 1.11358e-16 0.17956 1.15989e-05 4.7531e-06 -3.35979 
29356 2 0.0483346 0.165068 0.0166879 3.95625e-06 -3.35979 
29365 2 0.0805596 0.165045 0.0166883 3.46824e-06 -3.35978 
29367 2 0.0644468 0.165058 0.0666881 3.73491e-06 -3.35978 
29369 2 0.0483318 0.179546 0.0500123 4.41926e-06 -3.35979 
29370 2 0.080555 0.179522 0.0500134 3.87928e-06 -3.35978 
30901 2 0.0644431 0.179535 1.28076e-05 4.17148e-06 -3.35979 
29364 2 0.0966731 0.165029 0.0666885 3.16975e-06 -3.35978 
29366 2 0.112788 0.165011 0.0166887 2.85854e-06 -3.35977 
29385 2 0.128903 0.164991 0.0666889 2.54561e-06 -3.35977 
29387 2 0.112781 0.179487 0.0500149 3.19765e-06 -3.35977 
30900 2 0.0966676 0.179506 1.41319e-05 3.54715e-06 -3.35978 
30911 2 0.128896 0.179466 1.5689e-05 2.85094e-06 -3.35977 
29382 2 0.161138 0.164945 0.066689 1.97663e-06 -3.35976 
29383 2 0.14502 0.164969 0.016689 2.24723e-06 -3.35976 
29384 2 0.177257 0.16492 0.0166888 1.74019e-06 -3.35975 
29388 2 0.145012 0.179443 0.0500165 2.51565e-06 -3.35976 
29413 2 0.177247 0.179391 0.0500179 1.93412e-06 -3.35975 
30910 2 0.161129 0.179417 1.72324e-05 2.20455e-06 -3.35976 
29408 2 0.225625 0.164837 0.0666877 1.34547e-06 -3.35973 
29409 2 0.209501 0.164866 0.0166882 1.41846e-06 -3.35974 
29411 2 0.193378 0.164893 0.0666886 1.55095e-06 -3.35974 
29414 2 0.20949 0.179333 0.0500189 1.56477e-06 -3.35974 
30928 2 0.225613 0.179303 1.92031e-05 1.47508e-06 -3.35973 
30929 2 0.193368 0.179362 1.84821e-05 1.71921e-06 -3.35974 
29410 2 0.241751 0.164809 0.016687 1.33254e-06 -3.35973 
29445 2 0.257879 0.16478 0.0666861 1.38091e-06 -3.35972 
29447 2 0.241739 0.179273 0.0500193 1.45512e-06 -3.35972 
30955 2 0.257867 0.179242 1.92395e-05 1.50866e-06 -3.35972 
29442 2 0.290141 0.164723 0.0666838 1.64779e-06 -3.35971 
29443 2 0.274009 0.164751 0.016685 1.4878e-06 -3.35972 
29444 2 0.306275 0.164696 0.0166825 1.8519e-06 -3.35971 
29448 2 0.273997 0.179212 0.050019 1.63211e-06 -3.35971 
29489 2 0.306262 0.179153 0.0500179 2.05852e-06 -3.3597 
30954 2 0.290129 0.179182 1.85272e-05 1.81819e-06 -3.35971 
29484 2 0.354687 0.164621 0.066678 2.60218e-06 -3.3597 
29485 2 0.338548 0.164644 0.0166795 2.33856e-06 -3.3597 
29487 2 0.32241 0.164669 0.066681 2.0864e-06 -3.3597 
29490 2 0.338537 0.179098 0.0500162 2.64496e-06 -3.35969 
30988 2 0.354677 0.179073 1.00002 2.96329e-06 -3.35969 
30989 2 0.322398 0.179125 1.00002 2.33894e-06 -3.3597 
29486 2 0.370829 0.164599 0.0166764 2.86296e-06 -3.35969 
29535 2 0.403115 0.164563 0.0166734 3.33521e-06 -3.35969 
29537 2 0.386971 0.16458 0.0666748 3.10793e-06 -3.35969 
29539 2 0.370818 0.17905 0.050014 3.27819e-06 -3.35969 
29540 2 0.403107 0.179011 0.0500118 3.85438e-06 -3.35968 
31031 2 0.386962 0.179029 1.00001 3.57829e-06 -3.35968 
29534 2 0.419261 0.164548 0.0666721 3.5376e-06 -3.35969 
29536 2 0.435407 0.164535 0.0166709 3.70585e-06 -3.35969 
29595 2 0.451555 0.164525 0.06667 3.83631e-06 -3.35969 
29597 2 0.435402 0.178982 0.0500099 4.31146e-06 -3.35968 
31030 2 0.419254 0.178995 1.00001 4.10427e-06 -3.35968 
31081 2 0.45155 0.178971 1.00001 4.47598e-06 -3.35968 
29592 2 0.483851 0.164514 0.0666689 3.9932e-06 -3.35968 
29593 2 0.467703 0.164518 0.0166693 3.9327e-06 -3.35969 
29598 2 0.4677 0.178964 0.0500086 4.59454e-06 -3.35968 
31080 2 0.48385 0.178959 1.00001 4.6628e-06 -3.35968 
29594 2 0.5 0.164513 0.0166688 4.00972e-06 -3.35968 
29659 2 0.532297 0.164518 0.0166693 3.9327e-06 -3.35969 
29661 2 0.516149 0.164514 0.0666689 3.9932e-06 -3.35968 
29663 2 0.5 0.178958 0.0500082 4.68974e-06 -3.35968 
29664 2 0.5323 0.178964 0.0500086 4.59454e-06 -3.35968 
31139 2 0.51615 0.178959 1.00001 4.6628e-06 -3.35968 
29658 2 0.548445 0.164525 0.06667 3.83631e-06 -3.35969 
29660 2 0.564593 0.164535 0.0166709 3.70585e-06 -3.35969 
29735 2 0.580739 0.164548 0.0666721 3.5376e-06 -3.35969 
29737 2 0.564598 0.178982 0.0500099 4.31146e-06 -3.35968 
31138 2 0.54845 0.178971 1.00001 4.47598e-06 -3.35968 
31205 2 0.580746 0.178995 1.00001 4.10427e-06 -3.35968 
29732 2 0.613029 0.16458 0.0666748 3.10793e-06 -3.35969 
29733 2 0.596885 0.164563 0.0166734 3.33521e-06 -3.35969 
29734 2 0.629171 0.164599 0.0166764 2.86296e-06 -3.35969 
29738 2 0.596893 0.179011 0.0500118 3.85438e-06 -3.35968 
29819 2 0.629182 0.17905 0.050014 3.27819e-06 -3.35969 
31204 2 0.613038 0.179029 1.00001 3.57829e-06 -3.35968 
29814 2 0.67759 0.164669 0.066681 2.0864e-06 -3.3597 
29815 2 0.661452 0.164644 0.0166795 2.33856e-06 -3.3597 
29817 2 0.645313 0.164621 0.066678 2.60218e-06 -3.3597 
29820 2 0.661463 0.179098 0.0500162 2.64496e-06 -3.35969 
31278 2 0.677602 0.179125 1.00002 2.33894e-06 -3.3597 
31279 2 0.645323 0.179073 1.00002 2.96329e-06 -3.35969 
29816 2 0.693725 0.164696 0.0166825 1.8519e-06 -3.35971 
29905 2 0.725991 0.164751 0.016685 1.4878e-06 -3.35972 
29907 2 0.709859 0.164723 0.0666838 1.64779e-06 -3.35971 
29909 2 0.693738 0.179153 0.0500179 2.05852e-06 -3.3597 
29910 2 0.726003 0.179212 0.050019 1.63211e-06 -3.35971 
31361 2 0.709871 0.179182 1.85272e-05 1.81819e-06 -3.35971 
29904 2 0.742121 0.16478 0.0666861 1.38091e-06 -3.35972 
29906 2 0.758249 0.164809 0.016687 1.33254e-06 -3.35973 
30007 2 0.758261 0.179273 0.0500193 1.45512e-06 -3.35972 
31360 2 0.742133 0.179242 1.92395e-05 1.50866e-06 -3.35972 
30002 2 0.806622 0.164893 0.0666886 1.55095e-06 -3.35974 
30003 2 0.790499 0.164866 0.0166882 1.41846e-06 -3.35974 
30005 2 0.774375 0.164837 0.0666877 1.34547e-06 -3.35973 
30008 2 0.79051 0.179333 0.0500189 1.56477e-06 -3.35974 
31448 2 0.806632 0.179362 1.84821e-05 1.71921e-06 -3.35974 
31449 2 0.774387 0.179303 1.92031e-05 1.47508e-06 -3.35973 
30004 2 0.822743 0.16492 0.0166888 1.74019e-06 -3.35975 
30103 2 0.85498 0.164969 0.016689 2.24723e-06 -3.35976 
30105 2 0.838862 0.164945 0.066689 1.97663e-06 -3.35976 
30107 2 0.822753 0.179391 0.0500179 1.93412e-06 -3.35975 
30108 2 0.854988 0.179443 0.0500165 2.51565e-06 -3.35976 
31537 2 0.838871 0.179417 1.72324e-05 2.20455e-06 -3.35976 
30102 2 0.871097 0.164991 0.0666889 2.54561e-06 -3.35977 
30104 2 0.887212 0.165011 0.0166887 2.85854e-06 -3.35977 
30204 2 0.903327 0.165029 0.0666885 3.16975e-06 -3.35978 
30206 2 0.887219 0.179487 0.0500149 3.19765e-06 -3.35977 
31536 2 0.871104 0.179466 1.5689e-05 2.85094e-06 -3.35977 
31625 2 0.903332 0.179506 1.41319e-05 3.54715e-06 -3.35978 
30201 2 0.935553 0.165058 0.0666881 3.73491e-06 -3.35978 
30202 2 0.91944 0.165045 0.0166883 3.46824e-06 -3.35978 
30203 2 0.951665 0.165068 0.0166879 3.95625e-06 -3.35979 
30207 2 0.919445 0.179522 0.0500134 3.87928e-06 -3.35978 
30300 2 0.951668 0.179546 0.0500123 4.41926e-06 -3.35979 
31624 2 0.935557 0.179535 1.28076e-05 4.17148e-06 -3.35979 
30297 2 0.983889 0.16508 0.0166877 4.22291e-06 -3.35979 
30298 2 0.967777 0.165075 0.0666878 4.11929e-06 -3.35979 
30301 2 0.98389 0.179558 0.0500117 4.71362e-06 -3.35979 
31712 2 0.967779 0.179554 1.19138e-05 4.60245e-06 -3.35979 
29373 2 0.0161092 0.19404 0.0833332 5.27823e-06 -3.3598 
30899 2 2.81743e-16 0.194042 0.0333331 5.32148e-06 -3.3598 
30903 2 0.0322185 0.194035 0.0333337 5.15868e-06 -3.3598 
30904 2 0.0322157 0.208519 0.0666526 5.79765e-06 -3.3598 
30905 2 0.0161078 0.208525 0.016652 5.91719e-06 -3.3598 
30907 2 8.87486e-17 0.208526 0.0666518 5.95561e-06 -3.3598 
29374 2 0.0483281 0.194027 0.0833343 4.9688e-06 -3.35979 
29391 2 0.0805489 0.194002 0.0833364 4.38317e-06 -3.35979 
30902 2 0.0644382 0.194016 0.0333353 4.70506e-06 -3.35979 
30906 2 0.0483239 0.208511 0.0166537 5.59121e-06 -3.3598 
30915 2 0.0805419 0.208484 0.0166568 4.97837e-06 -3.35979 
30917 2 0.0644326 0.208499 0.0666551 5.31172e-06 -3.35979 
29392 2 0.112773 0.193965 0.0833392 3.65258e-06 -3.35978 
30912 2 0.128886 0.193942 0.0333408 3.27262e-06 -3.35977 
30913 2 0.0966604 0.193984 0.0333377 4.02561e-06 -3.35978 
30914 2 0.096652 0.208466 0.0666589 4.60758e-06 -3.35978 
30916 2 0.112763 0.208445 0.0166612 4.2122e-06 -3.35978 
30935 2 0.128875 0.208421 0.0666638 3.80828e-06 -3.35977 
29417 2 0.145001 0.193918 0.0833424 2.90112e-06 -3.35976 
29418 2 0.177235 0.193863 0.0833458 2.26819e-06 -3.35975 
30931 2 0.161117 0.193891 0.0333441 2.56154e-06 -3.35976 
30932 2 0.161104 0.208367 0.0666693 3.05324e-06 -3.35976 
30933 2 0.144989 0.208395 0.0166665 3.41592e-06 -3.35976 
30934 2 0.17722 0.208336 0.0166722 2.7423e-06 -3.35975 
29451 2 0.209475 0.193802 0.0833489 1.85761e-06 -3.35973 
30930 2 0.193354 0.193833 0.0333474 2.03219e-06 -3.35974 